# vtk DataFile Version 3.0
Lime grid
ASCII
DATASET UNSTRUCTURED_GRID
POINTS 808 float
1.742926e+17 2.154103e+18 7.708534e+16
-8.228385e+17 -1.049558e+18 2.602342e+17
-8.566603e+17 5.820377e+16 7.985559e+17
-1.068140e+18 -1.450457e+18 1.521695e+18
-4.749931e+15 4.944547e+17 -5.348451e+17
1.657671e+18 -1.129056e+18 -7.657723e+17
-7.657626e+16 -8.397631e+17 2.173236e+18
1.261422e+18 -1.957122e+17 3.446569e+17
-5.963453e+16 -6.839880e+16 1.477808e+18
4.131365e+17 -5.459492e+16 -1.227567e+18
3.033869e+17 -6.054098e+17 1.095146e+17
7.805564e+17 6.928220e+17 -1.031354e+17
3.094440e+17 3.894983e+16 -6.562569e+17
2.269779e+17 6.338755e+17 -6.566921e+17
-9.394788e+16 -2.220186e+18 3.923279e+17
-6.798519e+17 8.202534e+17 -1.031039e+18
1.811098e+17 -5.800127e+17 -5.698247e+17
1.143198e+18 1.017968e+16 -8.694401e+17
1.111484e+18 -4.607591e+16 1.140439e+18
2.298477e+17 7.502866e+17 1.424327e+18
1.492907e+17 4.930567e+16 1.343127e+18
2.103396e+17 1.296303e+17 -1.112068e+18
2.960270e+17 -1.137201e+18 -1.320564e+18
8.278234e+17 1.308301e+18 3.496042e+17
-1.323311e+18 -1.420966e+18 6.919699e+17
-6.194609e+17 6.311567e+17 -1.777563e+17
9.174840e+17 -1.716465e+17 -5.599768e+17
2.370312e+17 1.127582e+17 7.401695e+17
7.065885e+17 -3.585076e+17 -7.108323e+17
3.087748e+17 -1.279994e+18 4.770154e+17
-7.208233e+16 -4.635758e+16 -1.472671e+18
7.496761e+17 4.444966e+17 4.914693e+17
-8.732845e+17 -2.357226e+16 1.289114e+18
1.936080e+17 -6.421655e+17 -7.967530e+17
9.896280e+17 -5.411304e+17 2.305291e+18
-6.410655e+17 6.089808e+17 -4.900130e+17
-1.084470e+18 -1.673404e+18 2.775522e+17
7.151573e+17 -7.864457e+17 -1.128544e+18
-5.003481e+17 1.385724e+17 -1.115530e+18
5.267153e+17 -4.671828e+17 2.783885e+17
-3.456988e+17 6.332253e+17 -1.016796e+17
5.435371e+17 1.145687e+18 7.782132e+17
1.423510e+18 1.423563e+18 -8.781528e+17
-1.112984e+18 1.974136e+18 -1.217991e+17
1.481310e+17 -1.318034e+18 1.137444e+18
7.550931e+17 -1.927537e+18 2.534863e+17
5.109996e+17 2.440136e+17 -1.335647e+18
3.726930e+15 7.102783e+17 -1.430912e+18
-4.871895e+17 6.242182e+17 -7.461703e+17
-2.623561e+17 -2.270992e+17 5.904560e+17
-5.988405e+17 -1.092901e+18 1.076641e+18
-4.870307e+17 6.039837e+17 7.969745e+17
1.479581e+17 2.262108e+17 9.030697e+17
-1.076535e+18 -9.591230e+17 -1.894814e+18
5.074500e+16 -4.001322e+15 8.134574e+17
9.143516e+16 -4.989348e+17 -1.106001e+18
8.365369e+16 -8.341543e+17 8.688842e+17
1.398789e+17 -1.270258e+17 1.875913e+18
2.607127e+17 -5.781321e+17 -4.469000e+17
-3.169049e+17 6.048387e+17 4.810449e+17
-2.395060e+17 1.386837e+17 -1.057467e+18
-4.166559e+16 -1.012692e+17 1.074347e+18
5.926160e+17 -1.731897e+18 -1.954805e+17
-2.421332e+17 1.006575e+17 -6.228015e+17
9.289373e+17 -2.963042e+16 -2.890004e+17
-9.694682e+17 -1.364068e+18 -1.830338e+18
-2.110241e+17 2.012260e+16 -1.752476e+18
1.092023e+18 1.050933e+18 1.418892e+18
-1.036724e+18 1.520982e+18 -8.590188e+17
-7.647036e+17 1.058479e+18 1.535007e+17
1.342382e+17 -2.620684e+17 6.560550e+17
-9.967457e+17 -4.350334e+17 8.122716e+17
1.517809e+17 -3.611223e+17 -8.627284e+17
-1.789581e+17 -1.141871e+18 1.589031e+18
2.074055e+17 4.157529e+17 -1.135076e+18
-9.240895e+17 -1.557368e+18 -3.004860e+17
-4.408343e+17 -3.061889e+17 6.669453e+17
7.539462e+17 -6.852219e+17 1.111449e+18
-3.570081e+17 -2.687693e+17 1.674883e+18
-4.650092e+17 -2.150726e+18 6.734657e+17
-1.559558e+17 -6.358555e+17 2.679289e+17
-2.342182e+17 -2.808155e+17 -6.900608e+17
-1.931063e+18 1.801408e+17 -1.032568e+18
-1.071273e+17 3.186729e+16 -8.257268e+17
-4.142675e+16 1.410255e+17 -1.359395e+18
9.549307e+16 4.470710e+17 -2.443316e+18
-8.398126e+17 -1.386721e+18 6.185934e+17
-4.285303e+17 -4.909726e+17 4.035139e+17
-1.546894e+18 -4.851515e+17 9.433202e+17
-2.712108e+17 -6.055910e+17 -4.641709e+17
-1.330740e+17 5.891489e+17 -2.461504e+18
4.950363e+17 6.987961e+17 -1.797917e+18
9.507818e+17 -7.350490e+17 -3.584958e+17
9.794729e+17 1.910430e+17 3.397261e+17
3.437196e+17 -3.779928e+16 -1.521160e+18
1.263821e+18 3.523389e+17 -1.198748e+18
1.243215e+18 -1.043967e+18 -5.772461e+17
-1.869357e+17 1.502025e+18 1.864942e+18
3.745979e+15 3.379223e+17 -2.247641e+18
-1.766909e+18 4.816337e+17 -5.179738e+17
1.124755e+18 -9.192580e+16 1.574381e+18
1.954009e+18 1.412284e+18 1.436020e+16
-1.186572e+18 3.300601e+16 6.393536e+17
1.401240e+16 -1.283814e+18 -7.733688e+17
-1.370008e+18 -1.514237e+17 1.190582e+18
-1.087951e+17 1.771965e+18 -1.147714e+18
-2.492910e+15 -3.811772e+16 1.185800e+18
-1.546250e+18 -1.220374e+18 1.800416e+17
3.137204e+17 -4.711936e+17 5.696836e+17
-6.730966e+17 -3.143880e+17 -4.432883e+17
6.163070e+17 3.512721e+17 2.087344e+18
-1.152942e+18 1.638651e+17 9.971427e+17
1.783403e+17 -1.543806e+17 -7.189312e+17
5.050402e+17 -3.957680e+17 -3.653937e+17
4.798530e+17 7.612695e+17 5.808298e+17
-5.846786e+17 3.787241e+17 -1.821501e+18
-3.126121e+15 5.672889e+16 6.740036e+17
-9.931631e+17 -1.000616e+18 -5.719087e+17
3.982361e+17 -9.104739e+17 -5.331623e+17
-4.836725e+17 -5.177388e+17 6.980947e+16
6.270579e+16 -1.752603e+17 1.337237e+18
-1.221064e+18 -8.035697e+17 6.206231e+17
1.576389e+17 1.145610e+17 -1.333871e+18
-2.882328e+17 3.117530e+17 -2.398122e+18
-4.699950e+17 1.645809e+18 1.367621e+18
4.326825e+17 2.254833e+17 -1.909113e+18
6.611300e+17 -3.679281e+17 -8.203893e+16
-6.945269e+16 -2.579513e+17 -2.255646e+18
6.641671e+17 1.848539e+17 -1.598772e+18
1.811806e+16 -5.215890e+17 1.685890e+18
1.522362e+18 9.986922e+17 1.042040e+18
2.462429e+17 -3.640966e+17 -6.040635e+17
1.522479e+17 -1.368757e+18 2.158175e+18
-2.885788e+17 -8.693351e+17 -8.775582e+17
-2.298171e+17 2.587666e+16 6.366826e+17
-1.192053e+18 -3.238915e+17 -1.141064e+18
-1.076729e+18 1.760065e+17 3.064949e+17
-3.751204e+17 7.795883e+16 1.003045e+18
-2.354792e+15 -8.731232e+16 9.301771e+17
2.216367e+17 9.281451e+17 9.234101e+17
1.999267e+17 2.524986e+17 5.978958e+17
-1.715032e+18 -8.401848e+15 -1.374945e+17
-7.765146e+17 -6.448773e+16 -1.540956e+18
-4.088747e+16 6.963228e+16 -1.125013e+18
-3.893135e+17 -2.238140e+18 4.177913e+16
6.376538e+17 1.878539e+17 3.262628e+17
5.357634e+17 -2.926712e+17 7.288239e+17
-2.502384e+17 -8.922789e+17 7.917914e+17
5.174311e+17 8.743794e+16 -4.934122e+17
4.051211e+16 2.583439e+17 -1.818513e+18
1.329163e+18 -2.915482e+17 7.432066e+17
2.271008e+17 1.567490e+18 1.157463e+18
5.084889e+17 -1.153067e+17 4.713072e+17
-6.514851e+17 1.510113e+18 8.207837e+17
1.738464e+17 2.759602e+17 -7.821863e+17
-6.333674e+17 -5.849041e+17 -1.213547e+18
8.089150e+17 9.494936e+16 5.820930e+17
-5.497037e+17 -1.088269e+18 -2.983439e+17
6.429467e+17 -8.174752e+17 1.938032e+18
-5.747191e+17 -1.000319e+17 -6.832194e+17
7.781425e+17 5.536936e+17 -1.503580e+18
-9.199506e+17 -2.509150e+17 -6.181771e+17
-2.272998e+18 2.291091e+17 6.761548e+16
8.162731e+17 1.658867e+18 8.991721e+17
1.267766e+17 1.612824e+17 -8.848268e+17
3.128819e+17 -6.336469e+17 -1.051341e+18
9.807643e+17 -1.175150e+18 1.579687e+18
7.024755e+17 1.061752e+18 -1.530118e+18
4.439055e+17 3.805334e+17 3.987277e+17
3.464188e+17 -1.160042e+17 7.025084e+17
-3.035199e+17 8.988602e+17 -1.320534e+18
1.475891e+18 1.417440e+18 6.893556e+17
-2.721791e+17 -1.070972e+18 -5.369315e+17
-5.068767e+17 -1.034219e+17 2.051021e+18
1.246687e+18 9.922128e+17 -4.704230e+17
2.186501e+16 -1.874753e+15 7.227095e+17
6.926657e+17 -9.273419e+16 -4.486281e+16
-7.955802e+17 3.102677e+16 -9.285001e+17
4.868664e+17 -7.912819e+17 4.895600e+17
-3.100801e+17 9.717920e+17 2.069959e+18
9.274509e+17 -4.029378e+17 -3.313159e+17
-6.260436e+16 -1.267166e+17 7.886577e+17
-1.445628e+17 -1.936098e+17 -7.418105e+17
-7.358174e+17 3.911248e+16 -6.310969e+17
-3.454651e+17 9.252077e+17 2.977445e+17
-1.234303e+18 1.645506e+18 -1.450320e+18
-1.875285e+17 2.234161e+17 -7.680033e+17
2.344359e+17 9.211314e+16 2.043513e+18
-2.894418e+17 6.906467e+16 -1.514845e+18
-9.151798e+17 -2.183184e+17 -3.172588e+17
-7.498095e+17 3.518539e+17 -6.330123e+16
-3.127910e+17 -3.742089e+17 -4.750520e+17
-9.249319e+17 1.044977e+17 1.752712e+18
-1.611421e+18 1.878957e+18 -4.529043e+17
-5.965612e+17 -5.926638e+17 -5.281516e+17
-3.211476e+17 -1.685819e+18 -7.032572e+17
2.691603e+17 -1.453661e+18 -1.955974e+18
-4.498003e+17 -1.122693e+17 1.047078e+18
3.509768e+17 -5.959648e+17 -1.418597e+18
5.267807e+17 -6.776969e+17 -6.803723e+17
-9.321841e+17 -7.713501e+17 -1.511764e+18
-3.195838e+16 1.788014e+16 9.630179e+17
-4.550928e+16 -1.391935e+17 -7.357968e+17
2.167126e+17 -8.156350e+16 -1.084804e+18
3.600494e+17 2.853718e+17 1.087973e+18
8.345537e+17 -1.266835e+18 -9.647553e+17
-1.511598e+17 3.406206e+16 8.736449e+17
-1.454899e+18 -8.685811e+17 -9.062656e+17
-2.259474e+17 9.697341e+17 -3.639845e+17
1.319875e+17 4.964117e+17 4.677474e+17
9.438567e+15 -2.557221e+16 -2.489703e+18
-5.423549e+17 -4.342814e+16 5.144867e+17
-1.643566e+18 1.583532e+18 -6.209668e+17
2.115704e+17 -5.569912e+16 -1.961156e+18
5.856217e+16 -1.700218e+18 1.500263e+18
-4.630344e+17 -5.171986e+17 -8.684991e+17
8.035033e+16 -2.888395e+17 -1.189129e+18
-4.095221e+17 -1.599367e+18 3.141202e+17
-8.316706e+17 -6.767205e+17 1.596189e+17
-9.790584e+17 -8.458740e+17 1.859774e+18
4.840706e+17 1.325905e+18 -5.916865e+17
-4.795234e+17 -2.090595e+18 -1.038010e+18
-2.196424e+17 6.965292e+17 1.010661e+18
3.743647e+17 -3.291953e+16 9.490128e+17
-8.021028e+17 -1.873834e+17 5.410297e+17
-5.694400e+17 2.602114e+17 3.135323e+17
-7.415757e+17 -6.894761e+17 5.181050e+17
1.684745e+18 -1.546361e+18 -7.761571e+17
3.431862e+17 7.168124e+17 2.083405e+18
-1.519955e+17 -2.495229e+17 -1.528009e+18
-2.835016e+17 -1.224715e+17 -6.700812e+17
1.013564e+18 -1.081393e+18 6.638421e+17
6.446795e+17 -1.284580e+17 -5.633414e+17
-7.357353e+17 6.297289e+17 1.612923e+17
6.921403e+17 7.943038e+17 1.251305e+18
2.942503e+17 2.071667e+18 1.573848e+18
8.333892e+17 5.826784e+17 -1.139895e+18
1.530649e+18 9.779111e+17 3.444531e+17
4.672252e+17 -8.511571e+17 1.117229e+18
3.943881e+17 -2.823335e+17 -8.516587e+17
-2.452465e+17 -9.679960e+17 1.105151e+18
-1.070521e+17 7.191720e+17 1.806317e+18
-1.667508e+18 -4.118828e+17 4.043320e+17
-4.967400e+17 3.523426e+17 -3.052087e+17
[...]
POINT_DATA 808
SCALARS H2_density float 1
LOOKUP_TABLE default
6.618479e+10
8.099239e+10
8.099239e+10
5.812642e+10
8.099239e+10
6.690969e+10
5.913665e+10
8.099239e+10
8.099239e+10
8.099239e+10
8.099239e+10
8.099239e+10
8.099239e+10
8.099239e+10
6.209160e+10
8.099239e+10
8.099239e+10
8.099239e+10
8.099239e+10
8.099239e+10
8.099239e+10
8.099239e+10
8.099239e+10
8.099239e+10
7.111700e+10
8.099239e+10
8.099239e+10
8.099239e+10
8.099239e+10
8.099239e+10
8.099239e+10
8.099239e+10
8.099239e+10
8.099239e+10
5.119223e+10
8.099239e+10
7.367729e+10
8.099239e+10
8.099239e+10
8.099239e+10
8.099239e+10
8.099239e+10
6.466029e+10
6.155917e+10
8.099239e+10
6.987858e+10
8.099239e+10
8.099239e+10
8.099239e+10
8.099239e+10
8.099239e+10
8.099239e+10
8.099239e+10
5.728728e+10
8.099239e+10
8.099239e+10
8.099239e+10
8.099239e+10
8.099239e+10
8.099239e+10
8.099239e+10
8.099239e+10
8.099239e+10
8.099239e+10
8.099239e+10
5.388957e+10
8.099239e+10
7.035941e+10
7.270141e+10
8.099239e+10
8.099239e+10
8.099239e+10
8.099239e+10
7.641523e+10
8.099239e+10
8.099239e+10
8.099239e+10
8.099239e+10
8.099239e+10
6.029379e+10
8.099239e+10
8.099239e+10
6.462426e+10
8.099239e+10
8.099239e+10
5.370569e+10
8.099239e+10
8.099239e+10
8.099239e+10
8.099239e+10
5.216187e+10
7.489324e+10
8.099239e+10
8.099239e+10
8.099239e+10
8.099239e+10
8.099239e+10
5.654188e+10
6.142224e+10
8.016137e+10
7.806979e+10
5.622152e+10
8.099239e+10
8.099239e+10
8.099239e+10
6.847686e+10
8.099239e+10
7.565665e+10
8.099239e+10
8.099239e+10
6.429908e+10
8.099239e+10
8.099239e+10
8.099239e+10
8.099239e+10
7.728413e+10
8.099239e+10
8.099239e+10
8.099239e+10
8.099239e+10
8.099239e+10
8.099239e+10
8.099239e+10
5.537802e+10
6.490358e+10
7.609240e+10
8.099239e+10
6.148291e+10
8.099239e+10
8.099239e+10
6.927037e+10
8.099239e+10
5.138048e+10
8.099239e+10
8.099239e+10
8.099239e+10
8.099239e+10
8.099239e+10
8.099239e+10
8.099239e+10
8.099239e+10
8.099239e+10
8.099239e+10
8.099239e+10
6.145359e+10
8.099239e+10
8.099239e+10
8.099239e+10
8.099239e+10
8.099239e+10
8.099239e+10
7.660271e+10
8.099239e+10
8.099239e+10
8.099239e+10
8.099239e+10
8.099239e+10
8.099239e+10
6.452443e+10
8.099239e+10
8.099239e+10
8.099239e+10
6.091457e+10
7.140030e+10
8.099239e+10
8.099239e+10
6.451769e+10
7.494755e+10
8.099239e+10
8.099239e+10
8.099239e+10
6.633249e+10
8.099239e+10
6.841531e+10
8.099239e+10
8.099239e+10
8.099239e+10
8.099239e+10
8.099239e+10
6.004018e+10
8.099239e+10
8.099239e+10
8.099239e+10
8.099239e+10
8.099239e+10
5.271170e+10
8.099239e+10
7.123933e+10
8.099239e+10
8.099239e+10
8.099239e+10
8.099239e+10
7.528459e+10
5.272633e+10
8.099239e+10
8.099239e+10
5.482330e+10
8.099239e+10
8.099239e+10
8.099239e+10
7.811383e+10
8.099239e+10
8.099239e+10
8.099239e+10
8.099239e+10
8.099239e+10
8.099239e+10
7.901488e+10
8.099239e+10
8.099239e+10
5.357192e+10
8.099239e+10
5.785991e+10
7.592779e+10
6.161140e+10
8.099239e+10
8.099239e+10
8.099239e+10
8.099239e+10
6.172069e+10
8.099239e+10
5.722046e+10
8.099239e+10
8.099239e+10
8.099239e+10
8.099239e+10
8.099239e+10
5.608329e+10
6.321029e+10
8.099239e+10
8.099239e+10
8.099239e+10
8.099239e+10
8.099239e+10
8.099239e+10
4.967909e+10
8.099239e+10
8.099239e+10
8.099239e+10
8.099239e+10
8.099239e+10
7.746286e+10
8.099239e+10
8.099239e+10
8.099239e+10
5.948753e+10
8.099239e+10
8.099239e+10
8.099239e+10
8.099239e+10
8.099239e+10
7.002918e+10
8.099239e+10
8.099239e+10
8.099239e+10
5.465708e+10
7.082779e+10
8.099239e+10
8.099239e+10
8.099239e+10
8.099239e+10
6.274341e+10
7.438233e+10
8.099239e+10
8.099239e+10
7.849779e+10
8.099239e+10
6.864175e+10
8.099239e+10
8.099239e+10
5.766433e+10
8.099239e+10
8.099239e+10
6.255598e+10
6.702002e+10
8.099239e+10
8.099239e+10
8.099239e+10
8.099239e+10
6.354499e+10
8.099239e+10
8.099239e+10
8.099239e+10
6.000799e+10
5.348507e+10
8.099239e+10
8.099239e+10
8.099239e+10
8.099239e+10
8.099239e+10
6.488941e+10
8.099239e+10
7.960523e+10
8.099239e+10
8.099239e+10
8.099239e+10
6.808264e+10
8.099239e+10
7.619774e+10
8.099239e+10
8.099239e+10
8.099239e+10
8.099239e+10
8.099239e+10
8.099239e+10
8.099239e+10
8.099239e+10
8.099239e+10
8.099239e+10
6.509784e+10
8.099239e+10
8.099239e+10
8.099239e+10
6.627095e+10
6.017580e+10
5.614026e+10
6.675065e+10
5.995044e+10
8.099239e+10
8.099239e+10
4.854856e+10
8.099239e+10
8.099239e+10
8.099239e+10
8.099239e+10
8.099239e+10
8.099239e+10
4.978244e+10
8.099239e+10
8.099239e+10
8.099239e+10
8.099239e+10
8.099239e+10
8.099239e+10
8.099239e+10
8.099239e+10
8.099239e+10
8.099239e+10
8.099239e+10
8.099239e+10
8.099239e+10
6.075726e+10
5.491260e+10
8.099239e+10
8.099239e+10
8.099239e+10
8.099239e+10
8.099239e+10
8.099239e+10
8.099239e+10
8.099239e+10
8.099239e+10
8.099239e+10
8.099239e+10
6.859657e+10
8.099239e+10
8.099239e+10
8.099239e+10
8.099239e+10
8.099239e+10
8.099239e+10
8.099239e+10
8.099239e+10
8.099239e+10
8.099239e+10
6.424688e+10
5.772564e+10
8.099239e+10
8.099239e+10
8.099239e+10
8.099239e+10
8.099239e+10
8.099239e+10
6.977823e+10
8.099239e+10
8.099239e+10
8.099239e+10
7.945691e+10
8.099239e+10
8.099239e+10
8.099239e+10
5.185378e+10
8.099239e+10
8.099239e+10
8.099239e+10
8.099239e+10
8.099239e+10
8.099239e+10
8.099239e+10
8.099239e+10
6.876314e+10
8.099239e+10
6.241273e+10
8.099239e+10
8.099239e+10
8.078893e+10
8.099239e+10
8.099239e+10
8.099239e+10
8.099239e+10
8.099239e+10
8.099239e+10
8.099239e+10
8.099239e+10
8.099239e+10
8.099239e+10
6.393271e+10
8.099239e+10
8.099239e+10
7.492409e+10
8.099239e+10
8.037541e+10
8.099239e+10
5.547065e+10
8.099239e+10
8.099239e+10
8.099239e+10
5.819773e+10
8.099239e+10
5.495924e+10
5.818587e+10
8.099239e+10
8.099239e+10
8.099239e+10
8.099239e+10
8.099239e+10
6.642603e+10
7.536781e+10
8.099239e+10
4.845448e+10
8.099239e+10
5.428130e+10
8.099239e+10
8.099239e+10
8.099239e+10
8.099239e+10
8.099239e+10
8.099239e+10
8.099239e+10
6.669346e+10
8.099239e+10
8.099239e+10
8.099239e+10
8.099239e+10
5.838736e+10
8.099239e+10
8.099239e+10
8.099239e+10
7.381471e+10
6.166879e+10
8.099239e+10
8.099239e+10
8.099239e+10
6.023041e+10
5.841409e+10
8.099239e+10
7.970103e+10
8.099239e+10
8.099239e+10
8.099239e+10
5.588013e+10
7.306726e+10
5.571133e+10
8.099239e+10
8.099239e+10
8.099239e+10
8.099239e+10
8.099239e+10
6.031281e+10
8.099239e+10
5.134895e+10
8.099239e+10
8.099239e+10
8.099239e+10
8.099239e+10
8.099239e+10
6.505667e+10
6.471810e+10
8.099239e+10
8.099239e+10
8.099239e+10
8.099239e+10
8.099239e+10
8.099239e+10
5.027969e+10
8.099239e+10
8.099239e+10
6.138045e+10
8.099239e+10
7.502984e+10
8.099239e+10
8.099239e+10
7.064199e+10
8.099239e+10
8.099239e+10
8.099239e+10
8.099239e+10
8.099239e+10
5.553528e+10
8.099239e+10
6.305283e+10
6.977955e+10
8.099239e+10
4.991589e+10
8.099239e+10
8.099239e+10
7.653143e+10
8.099239e+10
1.000000e-30
1.000000e-30
1.000000e-30
1.000000e-30
1.000000e-30
1.000000e-30
1.000000e-30
1.000000e-30
1.000000e-30
1.000000e-30
1.000000e-30
1.000000e-30
1.000000e-30
1.000000e-30
1.000000e-30
1.000000e-30
1.000000e-30
1.000000e-30
1.000000e-30
1.000000e-30
1.000000e-30
1.000000e-30
1.000000e-30
1.000000e-30
1.000000e-30
1.000000e-30
1.000000e-30
1.000000e-30
1.000000e-30
1.000000e-30
1.000000e-30
1.000000e-30
1.000000e-30
1.000000e-30
1.000000e-30
1.000000e-30
1.000000e-30
1.000000e-30
1.000000e-30
1.000000e-30
1.000000e-30
1.000000e-30
1.000000e-30
1.000000e-30
1.000000e-30
1.000000e-30
1.000000e-30
1.000000e-30
1.000000e-30
1.000000e-30
1.000000e-30
1.000000e-30
1.000000e-30
1.000000e-30
1.000000e-30
1.000000e-30
1.000000e-30
1.000000e-30
1.000000e-30
1.000000e-30
1.000000e-30
1.000000e-30
1.000000e-30
1.000000e-30
1.000000e-30
1.000000e-30
1.000000e-30
1.000000e-30
1.000000e-30
1.000000e-30
1.000000e-30
1.000000e-30
1.000000e-30
1.000000e-30
1.000000e-30
1.000000e-30
1.000000e-30
1.000000e-30
1.000000e-30
1.000000e-30
1.000000e-30
1.000000e-30
1.000000e-30
1.000000e-30
1.000000e-30
1.000000e-30
1.000000e-30
1.000000e-30
1.000000e-30
1.000000e-30
1.000000e-30
1.000000e-30
1.000000e-30
1.000000e-30
1.000000e-30
1.000000e-30
1.000000e-30
1.000000e-30
1.000000e-30
1.000000e-30
1.000000e-30
1.000000e-30
1.000000e-30
1.000000e-30
1.000000e-30
1.000000e-30
1.000000e-30
1.000000e-30
1.000000e-30
1.000000e-30
1.000000e-30
1.000000e-30
1.000000e-30
1.000000e-30
1.000000e-30
1.000000e-30
1.000000e-30
1.000000e-30
1.000000e-30
1.000000e-30
1.000000e-30
1.000000e-30
1.000000e-30
1.000000e-30
1.000000e-30
1.000000e-30
1.000000e-30
1.000000e-30
1.000000e-30
1.000000e-30
1.000000e-30
1.000000e-30
1.000000e-30
1.000000e-30
1.000000e-30
1.000000e-30
1.000000e-30
1.000000e-30
1.000000e-30
1.000000e-30
1.000000e-30
1.000000e-30
1.000000e-30
1.000000e-30
1.000000e-30
1.000000e-30
1.000000e-30
1.000000e-30
1.000000e-30
1.000000e-30
1.000000e-30
1.000000e-30
1.000000e-30
1.000000e-30
1.000000e-30
1.000000e-30
1.000000e-30
1.000000e-30
1.000000e-30
1.000000e-30
1.000000e-30
1.000000e-30
1.000000e-30
1.000000e-30
1.000000e-30
1.000000e-30
1.000000e-30
1.000000e-30
1.000000e-30
1.000000e-30
1.000000e-30
1.000000e-30
1.000000e-30
1.000000e-30
1.000000e-30
1.000000e-30
1.000000e-30
1.000000e-30
1.000000e-30
1.000000e-30
1.000000e-30
1.000000e-30
1.000000e-30
1.000000e-30
1.000000e-30
1.000000e-30
1.000000e-30
1.000000e-30
1.000000e-30
1.000000e-30
1.000000e-30
1.000000e-30
1.000000e-30
1.000000e-30
1.000000e-30
1.000000e-30
1.000000e-30
1.000000e-30
1.000000e-30
1.000000e-30
1.000000e-30
1.000000e-30
1.000000e-30
1.000000e-30
1.000000e-30
1.000000e-30
1.000000e-30
1.000000e-30
1.000000e-30
1.000000e-30
1.000000e-30
1.000000e-30
1.000000e-30
1.000000e-30
1.000000e-30
1.000000e-30
1.000000e-30
1.000000e-30
1.000000e-30
1.000000e-30
1.000000e-30
1.000000e-30
1.000000e-30
1.000000e-30
1.000000e-30
1.000000e-30
1.000000e-30
1.000000e-30
1.000000e-30
1.000000e-30
1.000000e-30
1.000000e-30
1.000000e-30
1.000000e-30
1.000000e-30
1.000000e-30
1.000000e-30
1.000000e-30
1.000000e-30
1.000000e-30
1.000000e-30
1.000000e-30
1.000000e-30
1.000000e-30
1.000000e-30
1.000000e-30
1.000000e-30
1.000000e-30
1.000000e-30
1.000000e-30
1.000000e-30
1.000000e-30
1.000000e-30
1.000000e-30
1.000000e-30
1.000000e-30
1.000000e-30
1.000000e-30
1.000000e-30
1.000000e-30
1.000000e-30
1.000000e-30
1.000000e-30
1.000000e-30
1.000000e-30
1.000000e-30
1.000000e-30
1.000000e-30
1.000000e-30
1.000000e-30
1.000000e-30
1.000000e-30
1.000000e-30
1.000000e-30
1.000000e-30
1.000000e-30
1.000000e-30
1.000000e-30
1.000000e-30
1.000000e-30
1.000000e-30
1.000000e-30
1.000000e-30
1.000000e-30
1.000000e-30
1.000000e-30
1.000000e-30
1.000000e-30
1.000000e-30
1.000000e-30
1.000000e-30
1.000000e-30
1.000000e-30
1.000000e-30
1.000000e-30
1.000000e-30
1.000000e-30
1.000000e-30
1.000000e-30
1.000000e-30
SCALARS Mol_density float 1
LOOKUP_TABLE default
6.618479e+01
8.099239e+01
8.099239e+01
5.812642e+01
8.099239e+01
6.690969e+01
5.913665e+01
8.099239e+01
8.099239e+01
8.099239e+01
8.099239e+01
8.099239e+01
8.099239e+01
8.099239e+01
6.209160e+01
8.099239e+01
8.099239e+01
8.099239e+01
8.099239e+01
8.099239e+01
8.099239e+01
8.099239e+01
8.099239e+01
8.099239e+01
7.111700e+01
8.099239e+01
8.099239e+01
8.099239e+01
8.099239e+01
8.099239e+01
8.099239e+01
8.099239e+01
8.099239e+01
8.099239e+01
5.119223e+01
8.099239e+01
7.367729e+01
8.099239e+01
8.099239e+01
8.099239e+01
8.099239e+01
8.099239e+01
6.466029e+01
6.155917e+01
8.099239e+01
6.987858e+01
8.099239e+01
8.099239e+01
8.099239e+01
8.099239e+01
8.099239e+01
8.099239e+01
8.099239e+01
5.728728e+01
8.099239e+01
8.099239e+01
8.099239e+01
8.099239e+01
8.099239e+01
8.099239e+01
8.099239e+01
8.099239e+01
8.099239e+01
8.099239e+01
8.099239e+01
5.388957e+01
8.099239e+01
7.035941e+01
7.270141e+01
8.099239e+01
8.099239e+01
8.099239e+01
8.099239e+01
7.641523e+01
8.099239e+01
8.099239e+01
8.099239e+01
8.099239e+01
8.099239e+01
6.029379e+01
8.099239e+01
8.099239e+01
6.462426e+01
8.099239e+01
8.099239e+01
5.370569e+01
8.099239e+01
8.099239e+01
8.099239e+01
8.099239e+01
5.216187e+01
7.489324e+01
8.099239e+01
8.099239e+01
8.099239e+01
8.099239e+01
8.099239e+01
5.654188e+01
6.142224e+01
8.016137e+01
7.806979e+01
5.622152e+01
8.099239e+01
8.099239e+01
8.099239e+01
6.847686e+01
8.099239e+01
7.565665e+01
8.099239e+01
8.099239e+01
6.429908e+01
8.099239e+01
8.099239e+01
8.099239e+01
8.099239e+01
7.728413e+01
8.099239e+01
8.099239e+01
8.099239e+01
8.099239e+01
8.099239e+01
8.099239e+01
8.099239e+01
5.537802e+01
6.490358e+01
7.609240e+01
8.099239e+01
6.148291e+01
8.099239e+01
8.099239e+01
6.927037e+01
8.099239e+01
5.138048e+01
8.099239e+01
8.099239e+01
8.099239e+01
8.099239e+01
8.099239e+01
8.099239e+01
8.099239e+01
8.099239e+01
8.099239e+01
8.099239e+01
8.099239e+01
6.145359e+01
8.099239e+01
8.099239e+01
8.099239e+01
8.099239e+01
8.099239e+01
8.099239e+01
7.660271e+01
8.099239e+01
8.099239e+01
8.099239e+01
8.099239e+01
8.099239e+01
8.099239e+01
6.452443e+01
8.099239e+01
8.099239e+01
8.099239e+01
6.091457e+01
7.140030e+01
8.099239e+01
8.099239e+01
6.451769e+01
7.494755e+01
8.099239e+01
8.099239e+01
8.099239e+01
6.633249e+01
8.099239e+01
6.841531e+01
8.099239e+01
8.099239e+01
8.099239e+01
8.099239e+01
8.099239e+01
6.004018e+01
8.099239e+01
8.099239e+01
8.099239e+01
8.099239e+01
8.099239e+01
5.271170e+01
8.099239e+01
7.123933e+01
8.099239e+01
8.099239e+01
8.099239e+01
8.099239e+01
7.528459e+01
5.272633e+01
8.099239e+01
8.099239e+01
5.482330e+01
8.099239e+01
8.099239e+01
8.099239e+01
7.811383e+01
8.099239e+01
8.099239e+01
8.099239e+01
8.099239e+01
8.099239e+01
8.099239e+01
7.901488e+01
8.099239e+01
8.099239e+01
5.357192e+01
8.099239e+01
5.785991e+01
7.592779e+01
6.161140e+01
8.099239e+01
8.099239e+01
8.099239e+01
8.099239e+01
6.172069e+01
8.099239e+01
5.722046e+01
8.099239e+01
8.099239e+01
8.099239e+01
8.099239e+01
8.099239e+01
5.608329e+01
6.321029e+01
8.099239e+01
8.099239e+01
8.099239e+01
8.099239e+01
8.099239e+01
8.099239e+01
4.967909e+01
8.099239e+01
8.099239e+01
8.099239e+01
8.099239e+01
8.099239e+01
7.746286e+01
8.099239e+01
8.099239e+01
8.099239e+01
5.948753e+01
8.099239e+01
8.099239e+01
8.099239e+01
8.099239e+01
8.099239e+01
7.002918e+01
8.099239e+01
8.099239e+01
8.099239e+01
5.465708e+01
7.082779e+01
8.099239e+01
8.099239e+01
8.099239e+01
8.099239e+01
6.274341e+01
7.438233e+01
8.099239e+01
8.099239e+01
7.849779e+01
8.099239e+01
6.864175e+01
8.099239e+01
8.099239e+01
5.766433e+01
8.099239e+01
8.099239e+01
6.255598e+01
6.702002e+01
8.099239e+01
8.099239e+01
8.099239e+01
8.099239e+01
6.354499e+01
8.099239e+01
8.099239e+01
8.099239e+01
6.000799e+01
5.348507e+01
8.099239e+01
8.099239e+01
8.099239e+01
8.099239e+01
8.099239e+01
6.488941e+01
8.099239e+01
7.960523e+01
8.099239e+01
8.099239e+01
8.099239e+01
6.808264e+01
8.099239e+01
7.619774e+01
8.099239e+01
8.099239e+01
8.099239e+01
8.099239e+01
8.099239e+01
8.099239e+01
8.099239e+01
8.099239e+01
8.099239e+01
8.099239e+01
6.509784e+01
8.099239e+01
8.099239e+01
8.099239e+01
6.627095e+01
6.017580e+01
5.614026e+01
6.675065e+01
5.995044e+01
8.099239e+01
8.099239e+01
4.854856e+01
8.099239e+01
8.099239e+01
8.099239e+01
8.099239e+01
8.099239e+01
8.099239e+01
4.978244e+01
8.099239e+01
8.099239e+01
8.099239e+01
8.099239e+01
8.099239e+01
8.099239e+01
8.099239e+01
8.099239e+01
8.099239e+01
8.099239e+01
8.099239e+01
8.099239e+01
8.099239e+01
6.075726e+01
5.491260e+01
8.099239e+01
8.099239e+01
8.099239e+01
8.099239e+01
8.099239e+01
8.099239e+01
8.099239e+01
8.099239e+01
8.099239e+01
8.099239e+01
8.099239e+01
6.859657e+01
8.099239e+01
8.099239e+01
8.099239e+01
8.099239e+01
8.099239e+01
8.099239e+01
8.099239e+01
8.099239e+01
8.099239e+01
8.099239e+01
6.424688e+01
5.772564e+01
8.099239e+01
8.099239e+01
8.099239e+01
8.099239e+01
8.099239e+01
8.099239e+01
6.977823e+01
8.099239e+01
8.099239e+01
8.099239e+01
7.945691e+01
8.099239e+01
8.099239e+01
8.099239e+01
5.185378e+01
8.099239e+01
8.099239e+01
8.099239e+01
8.099239e+01
8.099239e+01
8.099239e+01
8.099239e+01
8.099239e+01
6.876314e+01
8.099239e+01
6.241273e+01
8.099239e+01
8.099239e+01
8.078893e+01
8.099239e+01
8.099239e+01
8.099239e+01
8.099239e+01
8.099239e+01
8.099239e+01
8.099239e+01
8.099239e+01
8.099239e+01
8.099239e+01
6.393271e+01
8.099239e+01
8.099239e+01
7.492409e+01
8.099239e+01
8.037541e+01
8.099239e+01
5.547065e+01
8.099239e+01
8.099239e+01
8.099239e+01
5.819773e+01
8.099239e+01
5.495924e+01
5.818587e+01
8.099239e+01
8.099239e+01
8.099239e+01
8.099239e+01
8.099239e+01
6.642603e+01
7.536781e+01
8.099239e+01
4.845448e+01
8.099239e+01
5.428130e+01
8.099239e+01
8.099239e+01
8.099239e+01
8.099239e+01
8.099239e+01
8.099239e+01
8.099239e+01
6.669346e+01
8.099239e+01
8.099239e+01
8.099239e+01
8.099239e+01
5.838736e+01
8.099239e+01
8.099239e+01
8.099239e+01
7.381471e+01
6.166879e+01
8.099239e+01
8.099239e+01
8.099239e+01
6.023041e+01
5.841409e+01
8.099239e+01
7.970103e+01
8.099239e+01
8.099239e+01
8.099239e+01
5.588013e+01
7.306726e+01
5.571133e+01
8.099239e+01
8.099239e+01
8.099239e+01
8.099239e+01
8.099239e+01
6.031281e+01
8.099239e+01
5.134895e+01
8.099239e+01
8.099239e+01
8.099239e+01
8.099239e+01
8.099239e+01
6.505667e+01
6.471810e+01
8.099239e+01
8.099239e+01
8.099239e+01
8.099239e+01
8.099239e+01
8.099239e+01
5.027969e+01
8.099239e+01
8.099239e+01
6.138045e+01
8.099239e+01
7.502984e+01
8.099239e+01
8.099239e+01
7.064199e+01
8.099239e+01
8.099239e+01
8.099239e+01
8.099239e+01
8.099239e+01
5.553528e+01
8.099239e+01
6.305283e+01
6.977955e+01
8.099239e+01
4.991589e+01
8.099239e+01
8.099239e+01
7.653143e+01
8.099239e+01
0.000000e+00
0.000000e+00
0.000000e+00
0.000000e+00
0.000000e+00
0.000000e+00
0.000000e+00
0.000000e+00
0.000000e+00
0.000000e+00
0.000000e+00
0.000000e+00
0.000000e+00
0.000000e+00
0.000000e+00
0.000000e+00
0.000000e+00
0.000000e+00
0.000000e+00
0.000000e+00
0.000000e+00
0.000000e+00
0.000000e+00
0.000000e+00
0.000000e+00
0.000000e+00
0.000000e+00
0.000000e+00
0.000000e+00
0.000000e+00
0.000000e+00
0.000000e+00
0.000000e+00
0.000000e+00
0.000000e+00
0.000000e+00
0.000000e+00
0.000000e+00
0.000000e+00
0.000000e+00
0.000000e+00
0.000000e+00
0.000000e+00
0.000000e+00
0.000000e+00
0.000000e+00
0.000000e+00
0.000000e+00
0.000000e+00
0.000000e+00
0.000000e+00
0.000000e+00
0.000000e+00
0.000000e+00
0.000000e+00
0.000000e+00
0.000000e+00
0.000000e+00
0.000000e+00
0.000000e+00
0.000000e+00
0.000000e+00
0.000000e+00
0.000000e+00
0.000000e+00
0.000000e+00
0.000000e+00
0.000000e+00
0.000000e+00
0.000000e+00
0.000000e+00
0.000000e+00
0.000000e+00
0.000000e+00
0.000000e+00
0.000000e+00
0.000000e+00
0.000000e+00
0.000000e+00
0.000000e+00
0.000000e+00
0.000000e+00
0.000000e+00
0.000000e+00
0.000000e+00
0.000000e+00
0.000000e+00
0.000000e+00
0.000000e+00
0.000000e+00
0.000000e+00
0.000000e+00
0.000000e+00
0.000000e+00
0.000000e+00
0.000000e+00
0.000000e+00
0.000000e+00
0.000000e+00
0.000000e+00
0.000000e+00
0.000000e+00
0.000000e+00
0.000000e+00
0.000000e+00
0.000000e+00
0.000000e+00
0.000000e+00
0.000000e+00
0.000000e+00
0.000000e+00
0.000000e+00
0.000000e+00
0.000000e+00
0.000000e+00
0.000000e+00
0.000000e+00
0.000000e+00
0.000000e+00
0.000000e+00
0.000000e+00
0.000000e+00
0.000000e+00
0.000000e+00
0.000000e+00
0.000000e+00
0.000000e+00
0.000000e+00
0.000000e+00
0.000000e+00
0.000000e+00
0.000000e+00
0.000000e+00
0.000000e+00
0.000000e+00
0.000000e+00
0.000000e+00
0.000000e+00
0.000000e+00
0.000000e+00
0.000000e+00
0.000000e+00
0.000000e+00
0.000000e+00
0.000000e+00
0.000000e+00
0.000000e+00
0.000000e+00
0.000000e+00
0.000000e+00
0.000000e+00
0.000000e+00
0.000000e+00
0.000000e+00
0.000000e+00
0.000000e+00
0.000000e+00
0.000000e+00
0.000000e+00
0.000000e+00
0.000000e+00
0.000000e+00
0.000000e+00
0.000000e+00
0.000000e+00
0.000000e+00
0.000000e+00
0.000000e+00
0.000000e+00
0.000000e+00
0.000000e+00
0.000000e+00
0.000000e+00
0.000000e+00
0.000000e+00
0.000000e+00
0.000000e+00
0.000000e+00
0.000000e+00
0.000000e+00
0.000000e+00
0.000000e+00
0.000000e+00
0.000000e+00
0.000000e+00
0.000000e+00
0.000000e+00
0.000000e+00
0.000000e+00
0.000000e+00
0.000000e+00
0.000000e+00
0.000000e+00
0.000000e+00
0.000000e+00
0.000000e+00
0.000000e+00
0.000000e+00
0.000000e+00
0.000000e+00
0.000000e+00
0.000000e+00
0.000000e+00
0.000000e+00
0.000000e+00
0.000000e+00
0.000000e+00
0.000000e+00
0.000000e+00
0.000000e+00
0.000000e+00
0.000000e+00
0.000000e+00